LAMMPS (27 May 2021)
OMP_NUM_THREADS environment is not set. Defaulting to 1 thread. (src/comm.cpp:98)
  using 1 OpenMP thread(s) per MPI task
Reading data file ...
  orthogonal box = (-21.000000 -21.000000 -50.000000) to (21.000000 21.000000 50.000000)
  2 by 4 by 8 MPI processor grid
  reading atoms ...
  12300 atoms
  reading velocities ...
  12300 velocities
  scanning bonds ...
  4 = max bonds/atom
  scanning angles ...
  6 = max angles/atom
  scanning dihedrals ...
  14 = max dihedrals/atom
  reading bonds ...
  10900 bonds
  reading angles ...
  16400 angles
  reading dihedrals ...
  17700 dihedrals
Finding 1-2 1-3 1-4 neighbors ...
  special bond factors lj:    0        0        0.5     
  special bond factors coul:  0        0        0.5     
     4 = max # of 1-2 neighbors
     7 = max # of 1-3 neighbors
    14 = max # of 1-4 neighbors
    16 = max # of special neighbors
  special bonds CPU = 0.035 seconds
  read_data CPU = 0.571 seconds
Reading data file ...
  orthogonal box = (-21.000000 -21.000000 -50.000000) to (21.000000 21.000000 50.000000)
  2 by 4 by 8 MPI processor grid
  reading atoms ...
  958 atoms
  reading velocities ...
  958 velocities
Finding 1-2 1-3 1-4 neighbors ...
  special bond factors lj:    0        0        0.5     
  special bond factors coul:  0        0        0.5     
     4 = max # of 1-2 neighbors
     7 = max # of 1-3 neighbors
    14 = max # of 1-4 neighbors
    16 = max # of special neighbors
  special bonds CPU = 0.001 seconds
  read_data CPU = 0.075 seconds
Reading data file ...
  orthogonal box = (-21.000000 -21.000000 -50.000000) to (21.000000 21.000000 50.000000)
  2 by 4 by 8 MPI processor grid
  reading atoms ...
  958 atoms
  reading velocities ...
  958 velocities
Finding 1-2 1-3 1-4 neighbors ...
  special bond factors lj:    0        0        0.5     
  special bond factors coul:  0        0        0.5     
     4 = max # of 1-2 neighbors
     7 = max # of 1-3 neighbors
    14 = max # of 1-4 neighbors
    16 = max # of special neighbors
  special bonds CPU = 0.001 seconds
  read_data CPU = 1.126 seconds
Setting atom values ...
  958 settings made for charge
Setting atom values ...
  958 settings made for charge
1916 atoms in group Au_E
Finding SHAKE clusters ...
     900 = # of size 2 clusters
    2000 = # of size 3 clusters
     600 = # of size 4 clusters
       0 = # of frozen angles
  find clusters CPU = 0.002 seconds
PPPM initialization ...
  using 12-bit tables for long-range coulomb (src/kspace.cpp:340)
  G vector (1/distance) = 0.29154812
  grid = 64 64 270
  stencil order = 5
  estimated absolute RMS force accuracy = 4.3160692e-05
  estimated relative force accuracy = 1.2997714e-07
  using double precision MKL FFT
  3d grid and FFT values/proc = 198850 98304
Neighbor list info ...
  update every 1 steps, delay 2 steps, check yes
  max neighbors/atom: 2000, page size: 100000
  master list distance cutoff = 14
  ghost atom cutoff = 14
  binsize = 7, bins = 6 6 15
  2 neighbor lists, perpetual/occasional/extra = 2 0 0
  (1) pair lj/cut/coul/long, perpetual
      attributes: half, newton on
      pair build: half/bin/newton
      stencil: half/bin/3d
      bin: standard
  (2) fix conp, perpetual, copy from (1)
      attributes: half, newton on
      pair build: copy
      stencil: none
      bin: none
Setting up Verlet run ...
  Unit style    : real
  Current step  : 0
  Time step     : 2
WARNING: Inconsistent image flags (src/domain.cpp:813)
Fix conp is now calculating A matrix ...  ... done!
conp output: <e,e> = 1.1091175
conp output: <d,d> = 0.1248173
Per MPI rank memory allocation (min/avg/max) = 26.10 | 30.05 | 51.13 Mbytes
Step c_t_liquid v_press_liquid c_qlAu c_qrAu Volume Lx Ly Lz TotEng PotEng KinEng E_vdwl E_coul Enthalpy 
       0            0   -2275.7111   -0.4112333    0.4112333       176400           42           42          100    1833432.1    1833432.1            0    1857974.1    61887.426    9943001.2 
    1000    294.90505    986.65543   -1.3677674    1.3677674       176400           42           42          100    1842229.9    1833381.7     8848.284    1857986.1    61845.615    9957372.8 
    2000    300.68532   -323.06628   -1.6913982    1.6913982       176400           42           42          100    1842467.2    1833445.5    9021.7143    1858158.1    61621.097    9955285.7 
    3000    298.65481   -121.07783   -2.1673242    2.1673242       176400           42           42          100    1842291.3    1833330.5    8960.7912    1857940.8    61859.798    9955520.2 
    4000    299.09607      561.361   -2.2527642    2.2527642       176400           42           42          100    1842440.8    1833466.8    8974.0309    1857995.6    61852.967    9956852.5 
    5000    300.87863   -22.288629   -2.1420156    2.1420156       176400           42           42          100    1842452.5      1833425    9027.5145    1858055.1    61754.445    9955798.8 
    6000    299.76548   -75.311336   -2.3058098    2.3058098       176400           42           42          100    1842392.6    1833398.5    8994.1157    1858189.2    61634.873      9955677 
    7000    302.46941    184.94911   -2.5313384    2.5313384       176400           42           42          100    1842582.3    1833507.1    9075.2438    1858131.1    61663.771    9956270.9 
    8000     300.1841   -928.67715    -2.657127     2.657127       176400           42           42          100      1842482    1833475.3    9006.6758    1857910.9    61869.414    9954274.8 
    9000    300.89041   -499.19286   -2.5925758    2.5925758       176400           42           42          100    1842552.1    1833524.2    9027.8678    1858076.7    61790.187    9955144.9 
   10000    302.10113    325.70932   -2.5223243    2.5223243       176400           42           42          100    1842574.9    1833510.7    9064.1939    1858014.1    61763.142    9956493.3 
   11000    295.75297    586.02213   -2.6075295    2.6075295       176400           42           42          100    1842487.9    1833614.1    8873.7249      1858097    61757.893    9956871.2 
   12000    299.95541   -291.16858   -2.8060991    2.8060991       176400           42           42          100    1842537.6    1833537.8    8999.8141    1857933.2    61799.387    9955521.4 
   13000    296.48359   -163.85269   -3.0745497    3.0745497       176400           42           42          100    1842394.4    1833498.8    8895.6464    1858070.8    61739.344    9955535.3 
   14000    301.46139    393.63774   -3.3238792    3.3238792       176400           42           42          100    1842545.9    1833500.9    9044.9995    1858049.5     61785.16      9956679 
   15000    296.92729    236.60879   -2.8859862    2.8859862       176400           42           42          100    1842436.8    1833527.9    8908.9589    1857961.7    61935.162      9956371 
   16000    302.54574    204.16718   -3.0190849    3.0190849       176400           42           42          100      1842671    1833593.5     9077.534    1858140.3    61734.659    9956448.9 
   17000    304.07649   -730.63065   -3.1208364    3.1208364       176400           42           42          100    1842685.3    1833561.8    9123.4625      1858056     61764.54    9954906.9 
   18000     299.1296   -225.04765   -3.1620811    3.1620811       176400           42           42          100      1842503    1833527.9    8975.0368    1858021.8    61748.234    9955515.4 
   19000    301.26483    679.14922   -3.2437313    3.2437313       176400           42           42          100    1842615.1      1833576     9039.102    1858156.9     61704.94    9957131.6 
   20000    297.30727   -149.81006   -3.2394741    3.2394741       176400           42           42          100    1842448.1    1833527.8    8920.3599    1858023.3    61760.566    9955604.5 
   21000     300.9859   -467.98968   -3.2805949    3.2805949       176400           42           42          100    1842595.8    1833565.1    9030.7328    1858015.7    61836.907    9955192.7 
   22000    298.58408     376.1913   -2.9973285    2.9973285       176400           42           42          100    1842501.6    1833542.9     8958.669    1858066.7    61727.697    9956569.6 
   23000    302.36574    82.178158   -3.0349192    3.0349192       176400           42           42          100    1842655.5    1833583.4    9072.1334    1858097.8     61769.02    9956217.9 
   24000     300.2808   -424.09726   -3.0753417    3.0753417       176400           42           42          100    1842533.8    1833524.2    9009.5773    1857998.5    61868.251    9955208.1 
   25000    300.90597   -654.95965   -3.0349012    3.0349012       176400           42           42          100    1842638.3      1833610    9028.3347    1857950.6     61931.19    9954968.5 
   26000    302.38386    -14.87726   -3.2285248    3.2285248       176400           42           42          100    1842589.4    1833516.7    9072.6772    1858035.5    61799.411      9955931 
   27000    299.09209    -296.6322   -2.9817941    2.9817941       176400           42           42          100    1842602.1    1833628.2    8973.9114    1857951.3    61924.443      9955564 
   28000    299.47829   -455.64399   -3.2580635    3.2580635       176400           42           42          100    1842666.7    1833681.2    8985.4987    1857992.7     61931.87    9955283.9 
   29000    299.23641   -299.08441   -3.2866079    3.2866079       176400           42           42          100    1842612.4    1833634.1    8978.2414    1858044.3    61873.333    9955513.2 
   30000    298.24038   -443.05868   -3.1565575    3.1565575       176400           42           42          100    1842440.4    1833492.1    8948.3567    1857966.9    61878.763    9955090.2 
   31000    299.15911   -412.49631    -3.190754     3.190754       176400           42           42          100    1842641.9    1833665.9    8975.9221    1858019.3    61858.951    9955371.9 
   32000    300.79934      21.9786   -3.4482288    3.4482288       176400           42           42          100    1842751.2    1833726.1    9025.1354    1858118.7    61864.585    9956290.3 
   33000    296.53463   -28.477639   -3.3494674    3.3494674       176400           42           42          100    1842533.6    1833636.4    8897.1777    1858003.2    61952.161    9955894.3 
   34000    301.53416   -113.44519   -3.4249159    3.4249159       176400           42           42          100    1842641.2      1833594    9047.1828    1858114.4    61730.485    9955909.7 
   35000    294.56911    484.28233   -3.5642651    3.5642651       176400           42           42          100    1842483.7    1833645.5    8838.2045    1858127.9    61795.938    9956769.5 
   36000    300.14936    12.786672   -3.5347779    3.5347779       176400           42           42          100    1842639.5    1833633.9    9005.6333    1857999.8    61908.981    9956100.9 
   37000    303.24007    308.46859   -3.4149929    3.4149929       176400           42           42          100    1842892.8    1833794.4    9098.3667    1858084.2    62003.608      9956808 
   38000    307.48017    798.83349   -3.4666962    3.4666962       176400           42           42          100    1842797.2    1833571.6    9225.5861      1858042    61927.587    9957577.1 
   39000    300.81768    213.22948   -3.4729085    3.4729085       176400           42           42          100    1842779.2    1833753.5    9025.6857    1858004.7    61973.706    9956592.5 
   40000    301.36031   -608.10034    -3.396631     3.396631       176400           42           42          100      1842654      1833612    9041.9665    1858019.1    61935.769      9955063 
   41000    296.35205    119.75233    -3.385822     3.385822       176400           42           42          100    1842491.4    1833599.7    8891.6997    1858000.8    61925.396      9956144 
   42000    302.86861    97.563989   -3.5858886    3.5858886       176400           42           42          100    1842641.1    1833553.9    9087.2214    1857944.2    61966.355      9956217 
   43000    302.72917   -6.0305842   -3.7058665    3.7058665       176400           42           42          100    1842641.6    1833558.5    9083.0377    1858045.5    61842.175    9956086.5 
   44000    299.44197    35.883869   -3.7233999    3.7233999       176400           42           42          100      1842595    1833610.6     8984.409    1858037.5    61837.406    9956135.9 
   45000     294.6073    342.75307   -3.7264216    3.7264216       176400           42           42          100    1842505.5    1833666.2    8839.3505    1857962.1    61963.229      9956509 
   46000    298.19124    259.30282   -3.5525723    3.5525723       176400           42           42          100    1842555.1    1833608.3    8946.8822    1857952.7    62004.722    9956366.1 
   47000    303.02843    371.50061   -3.8933582    3.8933582       176400           42           42          100      1842727      1833635    9092.0167    1858090.1    61808.274    9956772.6 
   48000    300.37411    557.35385   -3.7568765    3.7568765       176400           42           42          100    1842676.4      1833664    9012.3769      1857935    61930.655    9957056.2 
   49000    302.68509    194.82612   -3.7605572    3.7605572       176400           42           42          100      1842655    1833573.3    9081.7152    1857989.3     61904.48      9956349 
   50000    298.32408   -697.60992   -3.7279055    3.7279055       176400           42           42          100    1842727.7    1833776.8    8950.8682    1857894.3    62059.919    9954871.9 
   51000    300.43128   -42.841199   -3.6549128    3.6549128       176400           42           42          100    1842747.9    1833733.8    9014.0922    1858006.6    61986.945    9956098.1 
   52000    305.22446   -391.47107    -3.558095     3.558095       176400           42           42          100    1842839.4    1833681.5     9157.906    1858096.8    61868.259    9955601.7 
   53000    302.98071    609.07859    -3.554742     3.554742       176400           42           42          100    1842663.1    1833572.5    9090.5848    1858065.1     61826.33    9957225.6 
   54000    299.12797   -73.801893   -3.5381093    3.5381093       176400           42           42          100    1842743.7    1833768.7    8974.9878    1858031.2    61872.154    9956009.4 
   55000    299.66522   -142.07833   -3.5537998    3.5537998       176400           42           42          100      1842629    1833637.9    8991.1074      1857957    62038.166    9955798.9 
   56000    294.36419    254.28495   -3.5719309    3.5719309       176400           42           42          100    1842350.4    1833518.3    8832.0562    1858066.4    61739.986    9956169.6 
   57000    297.63583   -18.125487    -3.546105     3.546105       176400           42           42          100    1842501.9    1833571.6    8930.2179    1857979.1    61959.641    9955923.1 
   58000    300.45029    261.84802   -3.3383973    3.3383973       176400           42           42          100    1842666.7      1833652    9014.6624    1857998.1    61894.438    9956547.5 
   59000    306.34566    218.80883    -3.617368     3.617368       176400           42           42          100    1842849.5      1833658    9191.5463    1857987.7    61962.475    9956588.8 
   60000    298.47289   -751.12573   -3.4917658    3.4917658       176400           42           42          100    1842583.8    1833628.4    8955.3329    1857974.3    61978.637    9954681.6 
   61000    300.65861   -206.48018   -3.4496465    3.4496465       176400           42           42          100    1842661.1    1833640.2    9020.9128    1858048.9    61877.224    9955714.4 
   62000    299.13339   -97.379431   -3.4969333    3.4969333       176400           42           42          100    1842594.2      1833619    8975.1504    1858044.8    61851.618      9955900 
   63000    299.40937    515.82416   -3.5197746    3.5197746       176400           42           42          100    1842761.7    1833778.3    8983.4308    1858019.3    61977.007    9956995.7 
   64000    300.73237   -391.28556   -3.5358906    3.5358906       176400           42           42          100    1842673.8    1833650.7    9023.1259      1857984    61919.654    9955423.2 
   65000    300.86438   -330.42199   -3.6064456    3.6064456       176400           42           42          100    1842686.2    1833659.1    9027.0869    1857914.4    61974.371    9955635.3 
   66000    301.79804   -57.509622   -3.5326937    3.5326937       176400           42           42          100      1842707    1833651.9    9055.1003    1857948.5     61898.34    9956049.4 
   67000    301.28019   -349.42952   -3.4957229    3.4957229       176400           42           42          100    1842486.3    1833446.7    9039.5627    1858060.5    61758.766    9955339.4 
   68000    303.98633    723.03888   -3.5060118    3.5060118       176400           42           42          100    1842705.4    1833584.7    9120.7572      1858013    61964.762    9957341.7 
   69000    305.11002     854.6294   -3.4730728    3.4730728       176400           42           42          100    1842758.2    1833603.8    9154.4725    1857949.3    61937.877    9957584.6 
   70000    299.09124    283.50998   -3.3638462    3.3638462       176400           42           42          100    1842436.4    1833462.5    8973.8857    1858098.5    61766.186    9956435.4 
   71000    294.73407     586.6841   -3.5017224    3.5017224       176400           42           42          100    1842447.7    1833604.5     8843.154    1858196.1    61701.146      9956915 
   72000    303.83367    256.83046   -3.4352497    3.4352497       176400           42           42          100    1842693.4    1833577.2     9116.177    1857973.6    61963.994    9956564.4 
   73000    293.70302   -403.61979   -3.6536045    3.6536045       176400           42           42          100    1842263.6    1833451.4    8812.2185    1858024.3     61767.65    9954997.4 
   74000     300.9772    91.975568   -3.7369376    3.7369376       176400           42           42          100    1842530.9    1833500.4    9030.4719      1858057    61864.273    9956145.7 
   75000    300.05208    24.730976   -3.9352992    3.9352992       176400           42           42          100      1842703    1833700.3    9002.7147    1857975.2    62048.483    9956130.3 
   76000    302.80994   -172.94293   -3.8572503    3.8572503       176400           42           42          100    1842582.2    1833496.7    9085.4611    1857963.3    61914.844    9955711.3 
   77000    300.83013    30.276029   -3.5964913    3.5964913       176400           42           42          100    1842737.6    1833711.5    9026.0593    1857927.7    62048.819    9956185.9 
   78000    301.66375    541.38211   -3.8292973    3.8292973       176400           42           42          100      1842624      1833573     9051.071    1857940.5    61981.315    9956957.8 
   79000     294.8408   -229.18586   -3.5422902    3.5422902       176400           42           42          100    1842524.4      1833678    8846.3562    1858026.7    61895.928    9955543.2 
   80000    296.43345    321.44085   -3.6463059    3.6463059       176400           42           42          100      1842584    1833689.8    8894.1419    1858029.8    61960.606    9956594.8 
   81000     303.4298    102.28945   -3.6012927    3.6012927       176400           42           42          100    1842822.3    1833718.3    9104.0594    1858018.5    61985.745    9956446.2 
   82000    300.81174   -874.59266   -3.5640317    3.5640317       176400           42           42          100    1842636.3    1833610.8    9025.5075    1857974.1    61990.465    9954577.8 
   83000    301.00706   -685.73849   -3.6982746    3.6982746       176400           42           42          100    1842621.4      1833590    9031.3677    1857983.8    61966.356    9954888.8 
   84000    297.74519   -494.60524    -3.543892     3.543892       176400           42           42          100    1842631.7    1833698.2    8933.4992    1858101.8    61911.422    9955199.1 
   85000    304.84187   -356.74189   -3.5446186    3.5446186       176400           42           42          100    1842700.9    1833554.5    9146.4268    1858096.7    61876.219    9955512.2 
   86000    301.53977   -486.32893   -3.6507602    3.6507602       176400           42           42          100    1842580.7    1833533.4    9047.3512    1857875.2    62037.106    9955146.1 
   87000    299.14557    416.48843    -3.470543     3.470543       176400           42           42          100    1842441.2    1833465.6    8975.5158    1858131.7    61685.742    9956582.9 
   88000    303.29327   -118.96056   -3.7910457    3.7910457       176400           42           42          100    1842810.7    1833710.8    9099.9628    1857929.8    62015.779    9956078.9 
   89000    296.22315   -484.85009   -3.7147583    3.7147583       176400           42           42          100    1842467.6    1833579.8     8887.832    1858083.2    61740.667    9955111.6 
   90000    301.66351    367.48786   -3.5031031    3.5031031       176400           42           42          100    1842740.4    1833689.3    9051.0638    1858123.8    61798.468    9956762.2 
   91000    297.12546     164.5857   -3.6308225    3.6308225       176400           42           42          100    1842541.7    1833626.8    8914.9049    1858068.7    61805.066    9956323.3 
   92000    301.59392    169.09992   -3.5349571    3.5349571       176400           42           42          100    1842701.3    1833652.3    9048.9759    1857938.4    62028.555      9956480 
   93000    293.16855   -652.72817   -3.6609404    3.6609404       176400           42           42          100    1842284.3    1833488.1    8796.1823    1857945.6    61863.407    9954770.1 
   94000    302.18069    102.02935   -3.6091164    3.6091164       176400           42           42          100    1842712.3    1833645.7    9066.5812    1858109.9     61813.53    9956325.1 
   95000    297.22483   -8.6420532   -3.6350042    3.6350042       176400           42           42          100    1842523.9      1833606    8917.8865      1857938     61949.47    9955942.4 
   96000     299.4647    568.41545   -3.6906445    3.6906445       176400           42           42          100    1842583.3    1833598.2     8985.091    1858013.4    61899.999    9957013.6 
   97000     301.0938    389.42811   -3.7668368    3.7668368       176400           42           42          100    1842561.4    1833527.4    9033.9703    1858037.3    61879.038    9956655.1 
   98000     300.3951    304.17506   -3.7474717    3.7474717       176400           42           42          100    1842565.5    1833552.5    9013.0066    1858137.4    61754.384      9956546 
   99000    299.25708    249.45311   -3.8045686    3.8045686       176400           42           42          100    1842634.6    1833655.7    8978.8617    1858144.4    61760.206    9956572.4 
  100000    300.07119    319.02988   -3.8516773    3.8516773       176400           42           42          100    1842537.5    1833534.2    9003.2881    1858034.3    61907.709    9956457.1 
  101000    301.26125   -57.678335   -3.9640156    3.9640156       176400           42           42          100    1842513.5    1833474.5    9038.9945      1857929    61914.819    9955905.1 
  102000    300.42927   -399.86515   -3.9639702    3.9639702       176400           42           42          100    1842679.4    1833665.4    9014.0318      1857978    61896.416    9955493.3 
  103000     300.6345   -296.13548    -3.907587     3.907587       176400           42           42          100    1842605.6    1833585.4    9020.1896    1858044.6    61945.258    9955538.3 
  104000    301.92759     460.1711   -3.6798091    3.6798091       176400           42           42          100    1842633.7    1833574.7    9058.9872    1858051.4    61756.968      9956844 
  105000    296.88101   -36.736723   -3.8056138    3.8056138       176400           42           42          100    1842490.1    1833582.6    8907.5705    1858033.3    61835.985    9955860.6 
  106000    299.83364   -721.25752   -3.7585314    3.7585314       176400           42           42          100    1842665.2      1833669    8996.1608    1858028.3    61803.919      9954887 
  107000    297.94038    83.338675    -3.785081     3.785081       176400           42           42          100    1842642.8    1833703.5    8939.3557    1858037.8    61801.729    9956231.8 
  108000    300.11878    722.19736   -3.7229246    3.7229246       176400           42           42          100    1842734.1    1833729.4    9004.7159    1858114.1    61780.242    9957356.6 
  109000    301.60342    69.468407   -3.7267568    3.7267568       176400           42           42          100      1842628    1833578.7    9049.2608    1858063.2    61851.736    9956136.3 
  110000    300.09242   -368.43187   -3.5725304    3.5725304       176400           42           42          100    1842540.8    1833536.9    9003.9251    1857859.5    62074.762    9955321.9 
  111000    304.22742    111.28987   -3.7050986    3.7050986       176400           42           42          100    1842733.9    1833605.9    9127.9909    1858017.6     61893.18    9956414.9 
  112000    298.94865   -117.68092   -3.7097795    3.7097795       176400           42           42          100    1842664.3    1833694.7    8969.6075    1857998.4    61987.406    9955939.2 
  113000    298.79948    -72.27626   -3.8484304    3.8484304       176400           42           42          100    1842567.4    1833602.3    8965.1318    1858037.9    61859.117    9955910.9 
  114000    298.91937   -293.01284   -3.6277504    3.6277504       176400           42           42          100    1842696.5    1833727.8     8968.729    1858073.4    61836.852    9955619.1 
  115000    298.91718    -296.7458   -3.6113397    3.6113397       176400           42           42          100    1842610.2    1833641.6    8968.6633    1857971.1    61922.122    9955529.9 
  116000    302.01256    139.69529   -3.6400671    3.6400671       176400           42           42          100    1842623.3    1833561.8    9061.5365    1857871.7    62058.623    9956270.2 
  117000    296.74688    188.86528   -3.4450465    3.4450465       176400           42           42          100    1842480.2    1833576.6    8903.5459    1858071.5    61775.485    9956200.3 
  118000    295.64471   -531.64961   -3.3798747    3.3798747       176400           42           42          100    1842333.3    1833462.9    8870.4766    1858026.2    61844.439      9954901 
  119000    302.87343   -505.96608   -3.6106476    3.6106476       176400           42           42          100    1842740.2    1833652.8     9087.366    1858080.3    61804.956    9955313.2 
  120000    298.23731    899.44092   -3.6112321    3.6112321       176400           42           42          100    1842580.1    1833631.8    8948.2646    1857990.5     61885.89    9957500.6 
  121000    300.26182    -127.9112     -3.57888      3.57888       176400           42           42          100    1842624.9    1833615.9    9009.0079    1858116.9    61817.488      9955869 
  122000    300.41229    -549.9473   -3.6126287    3.6126287       176400           42           42          100    1842611.9    1833598.4    9013.5224    1857990.5    61924.326    9955057.9 
  123000     303.0586   -169.96861   -3.7341992    3.7341992       176400           42           42          100    1842778.2    1833685.3    9092.9217    1858085.4    61846.559    9955925.9 
  124000    305.11152    326.27378   -3.6253705    3.6253705       176400           42           42          100    1842677.7    1833523.2    9154.5174    1858009.5    61903.275    9956644.2 
  125000    300.38667   -556.55313   -3.6705246    3.6705246       176400           42           42          100    1842637.7    1833624.9    9012.7537    1857973.8    61930.124      9955044 
  126000    299.53336    19.185473   -3.7175499    3.7175499       176400           42           42          100    1842520.3    1833533.1    8987.1511    1857941.1    61975.811    9956039.2 
  127000    304.93795   -36.954484   -3.6744496    3.6744496       176400           42           42          100      1842879    1833729.7    9149.3096      1857900    62155.769    9956249.3 
  128000     299.9066    659.03232   -3.6319723    3.6319723       176400           42           42          100    1842442.2    1833443.9    8998.3498    1858032.3    61815.163    9956987.2 
  129000     301.6074    72.170252   -3.7367595    3.7367595       176400           42           42          100    1842718.8    1833669.4    9049.3804    1858017.6    61922.785    9956316.2 
  130000    300.54104   -244.76863   -3.6708169    3.6708169       176400           42           42          100      1842561    1833543.6    9017.3854    1857929.2    61931.339    9955514.7 
  131000      300.048    868.18957   -3.8844686    3.8844686       176400           42           42          100    1842550.1    1833547.5    9002.5923    1858023.7    61839.436    9957440.6 
  132000    304.89457    326.57198   -3.5387913    3.5387913       176400           42           42          100    1842769.4    1833621.4     9148.008    1858042.6    61851.078    9956828.7 
  133000    294.06065   -107.90161   -3.6151708    3.6151708       176400           42           42          100    1842602.6    1833779.6    8822.9489    1858034.3    61985.964    9955810.6 
  134000    298.17436    849.62951   -3.5540575    3.5540575       176400           42           42          100    1842530.6    1833584.2    8946.3758    1858040.1    61924.564    9957410.5 
  135000    301.00192   -535.78692   -3.6216886    3.6216886       176400           42           42          100    1842676.9    1833645.7    9031.2134    1858010.3    61911.102    9955180.9 
  136000    297.02139    245.19996   -3.6143743    3.6143743       176400           42           42          100    1842578.4    1833666.6    8911.7824    1857984.8    61891.346    9956471.9 
  137000    297.43857   -341.56864   -3.5422632    3.5422632       176400           42           42          100    1842487.9    1833563.6    8924.2994    1857973.1    61834.723    9955406.1 
  138000    300.16008    310.06157   -3.4943394    3.4943394       176400           42           42          100    1842545.5    1833539.6    9005.9551    1858079.8    61763.932    9956560.9 
  139000    299.39086     216.3453   -3.5361896    3.5361896       176400           42           42          100    1842625.6    1833642.8    8982.8755    1858111.6    61753.677    9956483.1 
  140000    296.69589   -553.29259   -3.5187586    3.5187586       176400           42           42          100    1842508.2    1833606.2    8902.0162    1858018.6     61883.66    9954992.9 
  141000    301.73696   -371.52451   -3.4278873    3.4278873       176400           42           42          100    1842656.3    1833603.1    9053.2676    1858025.2    61877.459      9955425 
  142000    299.21981   -920.51784   -3.5366845    3.5366845       176400           42           42          100    1842708.4    1833730.7    8977.7435    1858080.7    61850.104    9954596.1 
  143000    298.23903    -339.3384   -3.4437547    3.4437547       176400           42           42          100    1842710.3      1833762    8948.3164    1858004.1    61903.945    9955550.6 
  144000    300.30724   -121.26665   -3.4923212    3.4923212       176400           42           42          100    1842578.4    1833568.1    9010.3706      1858010    61805.882    9955725.5 
  145000     300.0885    -15.40852   -3.4481436    3.4481436       176400           42           42          100    1842452.9    1833449.1    9003.8073    1858091.9    61646.807    9955876.5 
  146000    301.35858   -897.17121   -3.4151584    3.4151584       176400           42           42          100      1842641    1833599.1    9041.9148    1857850.4    61983.346    9954509.3 
  147000    301.28965    1278.2558   -3.4451636    3.4451636       176400           42           42          100    1842818.7    1833778.8    9039.8465      1858003    61939.103    9958431.1 
  148000    297.79546   -176.07677   -3.6152125    3.6152125       176400           42           42          100    1842586.1    1833651.1    8935.0075    1857990.7    61839.823    9955707.5 
  149000    299.15299    232.76062    -3.696847     3.696847       176400           42           42          100      1842509    1833533.2    8975.7387    1858103.7    61747.115    9956221.3 
  150000    302.01897   -404.19482   -3.6349685    3.6349685       176400           42           42          100    1842466.4    1833404.7    9061.7291    1857948.2    61742.279    9955260.9 
  151000    295.87969    83.852266   -3.7738911    3.7738911       176400           42           42          100    1842476.6    1833599.1     8877.527    1857990.7    61860.198      9956094 
  152000    300.23278   -103.03629   -3.6953766    3.6953766       176400           42           42          100    1842592.4    1833584.3    9008.1365    1857981.7    61895.225    9955814.8 
  153000    299.93345    260.72411    -3.741512     3.741512       176400           42           42          100    1842539.4    1833540.2    8999.1555    1858047.5    61838.611    9956342.2 
  154000    303.84317    247.40663   -3.6812123    3.6812123       176400           42           42          100    1842740.8    1833624.4    9116.4621    1858050.1    61799.821    9956599.7 
  155000    300.39756    137.63071    -3.689573     3.689573       176400           42           42          100    1842513.9    1833500.9    9013.0805    1858004.3    61777.908      9956176 
  156000    300.03954    288.05819   -3.7229994    3.7229994       176400           42           42          100    1842329.3      1833327    9002.3385    1858013.6    61769.201    9956320.3 
  157000    298.37866   -563.23556    -3.725608     3.725608       176400           42           42          100    1842534.5      1833582    8952.5057    1858060.4    61751.913    9954973.5 
  158000    296.58964   -228.70419   -3.8489005    3.8489005       176400           42           42          100    1842595.7    1833696.8    8898.8282    1858066.2    61802.598    9955656.5 
  159000    302.27414    141.35727   -3.7110133    3.7110133       176400           42           42          100    1842590.1    1833520.7     9069.385    1858100.2    61792.735    9956243.3 
  160000    299.20267     445.2051   -3.9926401    3.9926401       176400           42           42          100    1842567.5    1833590.3    8977.2292      1858002    61906.274    9956744.7 
  161000    298.03461    25.506576    -3.791395     3.791395       176400           42           42          100    1842605.5    1833663.3    8942.1829    1858025.9    61927.351    9956062.7 
  162000    304.25896    363.46468   -3.8379183    3.8379183       176400           42           42          100    1842668.5    1833539.6    9128.9373    1858019.8    61796.523    9956716.2 
  163000    300.29184    449.74083   -3.7909469    3.7909469       176400           42           42          100    1842613.7    1833603.8    9009.9083      1858133    61706.926    9956820.7 
  164000    298.49134    75.515207   -3.6644556    3.6644556       176400           42           42          100    1842593.4    1833637.6    8955.8865    1858037.7    61847.208    9956121.2 
  165000    302.96375   -56.149988     -3.76667      3.76667       176400           42           42          100    1842597.8    1833507.7    9090.0759    1857974.2     61902.89    9955977.7 
  166000    298.40546   -272.59981   -3.8614099    3.8614099       176400           42           42          100      1842616    1833662.7    8953.3097    1858006.6    61861.249    9955652.4 
  167000    299.21448   -418.46025   -3.7618126    3.7618126       176400           42           42          100    1842623.7    1833646.1    8977.5835    1857993.9    61848.665      9955450 
  168000    297.73763    -955.6712    -3.826837     3.826837       176400           42           42          100    1842463.7    1833530.4    8933.2725    1858117.5    61720.046    9954254.4 
  169000    299.07479   -326.93951   -3.7522451    3.7522451       176400           42           42          100    1842568.6    1833595.2    8973.3922    1858077.7    61793.201    9955482.3 
  170000     303.1957    211.74903   -3.7147614    3.7147614       176400           42           42          100    1842649.1    1833552.1    9097.0354      1858053    61769.123    9956448.9 
  171000    305.81618     56.28318   -3.8157025    3.8157025       176400           42           42          100    1842630.9    1833455.2    9175.6597    1857912.7    61884.712    9956137.2 
  172000    297.07326    240.90169   -3.7072494    3.7072494       176400           42           42          100    1842559.5    1833646.2    8913.3387    1858014.7    61942.755    9956393.1 
  173000    300.65087   -73.035875    -3.657263     3.657263       176400           42           42          100    1842558.3    1833537.7    9020.6807    1857951.9    61872.363    9955889.7 
  174000    300.55344   -721.37974   -3.6373793    3.6373793       176400           42           42          100    1842546.9    1833529.1    9017.7574    1857992.6    61860.422    9954752.3 
  175000    299.76985   -493.78587   -3.7305225    3.7305225       176400           42           42          100    1842477.3      1833483    8994.2468    1858051.3    61840.184    9955193.3 
  176000    299.21953   -815.13084   -3.8561686    3.8561686       176400           42           42          100    1842694.9    1833717.1     8977.735    1857987.8    61976.971    9954754.7 
  177000    301.42289   -1262.9788   -3.7702745    3.7702745       176400           42           42          100    1842708.4    1833664.5    9043.8444    1857947.1    61983.242      9954000 
  178000    297.54404   -221.08188   -3.9829183    3.9829183       176400           42           42          100    1842584.9    1833657.4    8927.4638      1858044    61859.934    9955675.1 
  179000    301.48287    196.78505    -3.938292     3.938292       176400           42           42          100    1842705.3    1833659.6    9045.6438      1858077    61941.039    9956490.8 
  180000    294.62407    1044.1976   -3.6725604    3.6725604       176400           42           42          100    1842584.9      1833745    8839.8536    1858115.8    61845.017    9957852.7 
  181000    298.05176   -154.17601   -3.8319197    3.8319197       176400           42           42          100    1842612.8    1833670.1    8942.6974    1858112.3    61813.568    9955809.1 
  182000     301.6975   -150.95298   -3.6919681    3.6919681       176400           42           42          100    1842631.7    1833579.6    9052.0835    1858145.4     61842.44      9955862 
  183000    299.50465   -12.780336   -3.7939376    3.7939376       176400           42           42          100    1842495.3      1833509    8986.2896    1858106.8    61781.725    9955947.5 
  184000    300.71923   -440.80088   -3.8321514    3.8321514       176400           42           42          100    1842439.7    1833416.9    9022.7318    1858016.6    61797.424    9955156.7 
  185000    301.07891   -62.980244   -3.6203336    3.6203336       176400           42           42          100    1842508.7    1833475.2    9033.5237    1858023.2    61815.332      9955885 
  186000    302.70855   -1078.9792    -3.637921     3.637921       176400           42           42          100    1842611.7    1833529.3    9082.4191    1857962.2    61852.619      9954170 
  187000    300.21399   -144.55269    -3.522898     3.522898       176400           42           42          100      1842595    1833587.5    9007.5727    1858076.4    61803.977    9955860.5 
  188000    295.26345   -127.68989   -3.6558525    3.6558525       176400           42           42          100    1842439.9    1833580.9    8859.0375      1858103    61734.567    9955614.3 
  189000    300.14895    682.97141   -3.6164173    3.6164173       176400           42           42          100    1842634.3    1833628.6    9005.6211    1858105.2    61895.854    9957209.9 
  190000    297.91572   -95.721379   -3.6247287    3.6247287       176400           42           42          100    1842566.9    1833628.3    8938.6158    1858046.7    61881.485    9955892.1 
  191000    300.27793   -416.77596   -3.8038916    3.8038916       176400           42           42          100    1842529.7    1833520.2    9009.4912    1858031.3    61810.876    9955249.5 
  192000    297.88092   -304.06774   -3.7585604    3.7585604       176400           42           42          100    1842493.6      1833556    8937.5715    1858033.3    61851.321    9955488.8 
  193000    301.23142   -262.54988   -3.8959433    3.8959433       176400           42           42          100    1842598.1      1833560    9038.0995    1858047.6    61804.127    9955546.6 
  194000    299.75528   -423.86978   -3.6671912    3.6671912       176400           42           42          100      1842439    1833445.2    8993.8095    1857885.2    61906.667    9955152.8 
  195000    302.00019   -513.45251   -3.8477286    3.8477286       176400           42           42          100    1842653.8    1833592.6    9061.1655      1858040    61850.303    9955214.4 
  196000    302.96476    465.48785   -4.1048317    4.1048317       176400           42           42          100    1842642.9    1833552.8    9090.1062    1857949.5    61867.249    9956855.1 
  197000     301.1398   -448.64749   -3.9212802    3.9212802       176400           42           42          100    1842636.6    1833601.3    9035.3506    1857996.3    61914.728    9955356.2 
  198000    300.37376   -574.86726   -3.7621727    3.7621727       176400           42           42          100    1842601.2    1833588.8    9012.3662    1858051.7    61832.296    9955053.4 
  199000    299.20036   -64.804496   -3.9230125    3.9230125       176400           42           42          100    1842689.3    1833712.1    8977.1597    1858158.8    61755.529    9956064.6 
  200000    300.84047    250.24054   -3.6932055    3.6932055       176400           42           42          100    1842507.9    1833481.5    9026.3693    1857948.3    62027.545    9956322.1 
  201000    299.60827    193.18231   -3.7259622    3.7259622       176400           42           42          100    1842645.3      1833656    8989.3986      1858093    61910.155    9956374.5 
  202000    297.01734   -168.60795   -3.8156842    3.8156842       176400           42           42          100    1842414.4    1833502.8    8911.6608    1857921.6    61881.855    9955538.6 
  203000    299.44868   -125.06604    -3.844292     3.844292       176400           42           42          100      1842568    1833583.4    8984.6105    1857998.3     61814.71    9955744.2 
  204000    298.75138   -22.384473   -3.8227379    3.8227379       176400           42           42          100    1842411.5    1833447.8    8963.6888    1858081.4    61728.599    9955882.7 
  205000    301.85483    350.88329   -3.6096865    3.6096865       176400           42           42          100    1842641.6    1833584.8    9056.8041    1858184.5    61677.361    9956739.6 
  206000     300.5631    626.15085   -3.8541241    3.8541241       176400           42           42          100    1842497.3    1833479.3    9018.0473    1858096.4    61742.715    9957054.4 
  207000    298.46791   -288.21384   -3.8333434    3.8333434       176400           42           42          100      1842497    1833541.9    8955.1836    1857984.9    61882.938    9955432.7 
  208000    296.29115   -95.086177   -3.8413409    3.8413409       176400           42           42          100    1842272.7    1833382.9    8889.8723    1858037.1    61728.325    9955434.7 
  209000    303.18601    303.19066   -4.0111695    4.0111695       176400           42           42          100    1842749.5    1833652.7    9096.7445    1858082.8    61699.984    9956688.8 
  210000     303.8779    740.81629   -3.9042099    3.9042099       176400           42           42          100    1842566.7    1833449.2    9117.5039    1858193.6    61508.956    9957252.5 
  211000    298.64783    54.037262   -3.9108369    3.9108369       176400           42           42          100    1842578.7    1833618.1    8960.5819    1858051.4    61769.121    9956099.3 
  212000      301.714   -466.74223   -3.8404199    3.8404199       176400           42           42          100    1842618.7    1833566.1    9052.5788    1858106.4    61731.978    9955282.6 
  213000    301.11682   -228.53807    -3.874339     3.874339       176400           42           42          100    1842530.7      1833496     9034.661    1857984.9    61904.662    9955610.3 
  214000    299.92874    247.90674   -3.8323101    3.8323101       176400           42           42          100    1842509.8    1833510.8    8999.0141      1858009    61875.001    9956362.9 
  215000     298.9528   -268.09921   -3.9648288    3.9648288       176400           42           42          100    1842505.6    1833535.9    8969.7321    1857958.7    61895.602    9955474.6 
  216000    301.41387    -43.15651   -3.7781303    3.7781303       176400           42           42          100    1842736.9    1833693.3    9043.5736    1858109.9    61898.735    9956142.1 
  217000    300.43074   -186.69457   -3.9141344    3.9141344       176400           42           42          100    1842425.1      1833411    9014.0761    1858093.5    61718.651    9955494.5 
  218000    297.89266   -423.78874   -3.9181009    3.9181009       176400           42           42          100    1842595.9      1833658    8937.9239    1858004.8    61968.573    9955359.6 
  219000    300.62297   -136.78505   -3.8836599    3.8836599       176400           42           42          100    1842736.6    1833716.7    9019.8437    1858158.7    61812.626    9956016.2 
  220000    299.50997    144.68612   -4.0028109    4.0028109       176400           42           42          100    1842485.3    1833498.9    8986.4492    1858094.3    61746.463    9956117.3 
  221000    304.22081   -101.56325   -4.0222498    4.0222498       176400           42           42          100    1842828.7    1833700.9    9127.7925    1858050.9    61947.042      9956145 
  222000    298.28984   -467.12056   -3.9655189    3.9655189       176400           42           42          100    1842500.5    1833550.7    8949.8408    1858029.6    61831.447      9955192 
  223000    303.01674    633.05036    -4.048128     4.048128       176400           42           42          100    1842664.2    1833572.5    9091.6659    1858019.1    61898.661      9957173 
  224000    299.08023   -434.97844    -3.911104     3.911104       176400           42           42          100    1842546.6      1833573    8973.5554      1858030    61864.524    9955268.1 
  225000    302.65727   -262.44714   -4.0384819    4.0384819       176400           42           42          100    1842753.1    1833672.2    9080.8804    1857981.7    61983.016      9955753 
  226000    301.95634    580.86208   -4.0800652    4.0800652       176400           42           42          100    1842762.3    1833702.5    9059.8498    1858139.9    61810.646      9957222 
  227000    298.92177    553.22683   -4.0578165    4.0578165       176400           42           42          100    1842485.3    1833516.5     8968.801    1858006.8    61856.636    9956867.1 
  228000    303.50968    101.77369   -3.8684266    3.8684266       176400           42           42          100    1842737.5      1833631    9106.4559    1858001.4     61931.25    9956301.9 
  229000    301.92598    257.74862   -3.9809484    3.9809484       176400           42           42          100    1842570.1    1833511.2    9058.9388    1857979.4    61791.691    9956340.8 
  230000    305.00676    294.28179   -3.9498312    3.9498312       176400           42           42          100    1842735.6    1833584.2    9151.3741    1858080.6    61786.529    9956656.4 
  231000    298.78064    305.53717   -3.8630497    3.8630497       176400           42           42          100    1842714.4    1833749.8    8964.5665      1858099    61852.508    9956743.9 
  232000    298.02946   -288.05381   -3.8844457    3.8844457       176400           42           42          100    1842586.8    1833644.8    8942.0283    1858027.8     61953.92    9955549.6 
  233000    297.24154   -165.65131    -3.679713     3.679713       176400           42           42          100    1842539.1    1833620.7    8918.3878    1858074.5    61886.853    9955684.3 
  234000    301.27827    209.42907   -3.8140822    3.8140822       176400           42           42          100    1842689.2    1833649.7    9039.5052    1858006.1    61960.188    9956451.5 
  235000    300.97373    192.83827   -3.7552828    3.7552828       176400           42           42          100    1842659.1    1833628.8    9030.3677    1858045.4    61870.948      9956429 
  236000    300.00799    237.18902   -3.8280213    3.8280213       176400           42           42          100    1842524.4      1833523    9001.3918    1858082.5    61865.641    9956342.9 
  237000     299.3672   -39.595542    -3.691675     3.691675       176400           42           42          100    1842546.2      1833564    8982.1657    1858064.9    61796.746    9955948.5 
  238000     300.9647     27.77033   -3.6884074    3.6884074       176400           42           42          100    1842546.8    1833516.7    9030.0967    1857908.6    61873.138    9956040.9 
  239000    304.49453    448.71492   -3.8232526    3.8232526       176400           42           42          100    1842577.4    1833441.4    9136.0053    1858073.7    61699.521    9956782.9 
  240000    300.78505    493.66163   -3.8049635    3.8049635       176400           42           42          100    1842478.8    1833454.1    9024.7067    1858083.4    61724.028    9956776.4 
  241000    303.10732   -201.67094   -3.7886804    3.7886804       176400           42           42          100    1842805.3      1833711    9094.3838    1857960.8    61952.754      9955927 
  242000    307.34844    285.77869   -3.6868413    3.6868413       176400           42           42          100    1842887.5    1833665.9    9221.6335    1858062.5    61846.852    9956845.5 
  243000    301.03123    478.61866   -3.7940588    3.7940588       176400           42           42          100    1842621.3    1833589.2     9032.093    1858043.4    61840.402    9956919.8 
  244000    294.68162   -52.316755   -3.8575204    3.8575204       176400           42           42          100    1842424.5    1833582.9    8841.5802    1857967.6    61882.325    9955820.1 
  245000    301.79251   -27.563674   -3.7566811    3.7566811       176400           42           42          100      1842581      1833526    9054.9344    1858004.2     61844.29      9956016 
  246000    296.44718    690.48399   -3.8844848    3.8844848       176400           42           42          100    1842484.9    1833590.3    8894.5538    1858037.1     61877.24    9957051.5 
  247000    298.16573    74.685248   -3.6572803    3.6572803       176400           42           42          100    1842462.4    1833516.3    8946.1169    1857959.4    61923.749    9956023.9 
  248000    296.40498    724.21626   -3.7524929    3.7524929       176400           42           42          100    1842528.2    1833634.9    8893.2876    1858087.4    61834.355    9957238.8 
  249000    298.25417    541.13879   -3.7548092    3.7548092       176400           42           42          100    1842650.4    1833701.7    8948.7705    1858022.4    61863.802      9956975 
  250000    299.35248      245.218   -3.9056019    3.9056019       176400           42           42          100    1842562.4    1833580.7    8981.7239    1857966.9    61915.541      9956442 
  251000    297.28439    345.28429   -3.8505216    3.8505216       176400           42           42          100    1842594.5    1833674.8    8919.6733    1858107.9    61869.451    9956663.1 
  252000    304.94496   -64.538126   -3.7387791    3.7387791       176400           42           42          100    1842636.6    1833487.1    9149.5198    1858029.6    61773.191    9955927.5 
  253000    300.35599    33.287848   -3.7665353    3.7665353       176400           42           42          100    1842598.8      1833587    9011.8331      1858024    61899.352    9956066.7 
  254000    299.98064    304.37144    -3.796868     3.796868       176400           42           42          100    1842567.6    1833567.1    9000.5711    1858098.6    61777.975    9956465.3 
  255000    297.23124   -275.66279   -3.8083183    3.8083183       176400           42           42          100    1842463.5    1833545.4    8918.0787    1857968.3    61912.648    9955526.2 
  256000      299.029   -2.8808242   -3.9803839    3.9803839       176400           42           42          100    1842514.6    1833542.6    8972.0183    1858195.2    61733.952    9956008.8 
  257000    303.16885   -1003.7586    -3.867818     3.867818       176400           42           42          100    1842624.8    1833528.5    9096.2298      1858000    61933.053    9954360.5 
  258000    300.66139    130.26921   -3.9619091    3.9619091       176400           42           42          100    1842673.5    1833652.5    9020.9964    1858039.5    61964.912    9956283.5 
  259000    296.61125    617.77688   -3.8904276    3.8904276       176400           42           42          100    1842466.4    1833566.9    8899.4766    1858029.5    61979.982    9956940.4 
  260000     301.7739   -130.73528    -3.842212     3.842212       176400           42           42          100    1842605.7    1833551.3    9054.3759      1858074    61786.021    9955854.2 
  261000    299.63507   -237.83245   -3.8787001    3.8787001       176400           42           42          100    1842635.5    1833645.2    8990.2028    1858021.1    61923.319      9955677 
  262000     298.3578     276.7499   -3.9070598    3.9070598       176400           42           42          100    1842637.6    1833685.7    8951.8799    1858053.3    61859.956    9956532.6 
  263000     297.3761    530.89252   -3.9057033    3.9057033       176400           42           42          100    1842629.8    1833707.3     8922.425    1857998.4    61971.413    9956992.8 
  264000    300.74216    770.18164   -3.7637301    3.7637301       176400           42           42          100    1842771.8    1833748.4    9023.4199    1858026.8    61935.031    9957492.7 
  265000    297.94945    86.646082   -3.8584769    3.8584769       176400           42           42          100    1842404.4    1833464.8    8939.6279    1857957.9    61915.467    9956034.6 
  266000    299.30635   -438.56712   -3.9610943    3.9610943       176400           42           42          100    1842595.5    1833615.1    8980.3399    1857869.2    61990.963    9955360.1 
  267000    300.38005   -303.22626    -4.099921     4.099921       176400           42           42          100    1842602.2    1833589.7     9012.555    1857911.4    61972.414    9955515.5 
  268000    299.31948    198.04257   -4.1351605    4.1351605       176400           42           42          100    1842748.4    1833767.7     8980.734    1857949.6    61992.071    9956560.1 
  269000    292.22777    670.43021   -4.0854932    4.0854932       176400           42           42          100    1842280.5    1833512.6    8767.9554    1858057.8    61773.912    9956817.6 
  270000    304.82272   -826.89444   -3.9974077    3.9974077       176400           42           42          100    1842676.5    1833530.6    9145.8522      1857865     62038.46    9954726.4 
  271000     301.7486   -129.10112   -4.1244913    4.1244913       176400           42           42          100    1842647.8    1833594.2    9053.6167    1857958.9    61945.051    9955861.7 
  272000    297.00134   -57.065465   -3.9617979    3.9617979       176400           42           42          100    1842636.9    1833725.8    8911.1809    1858005.1     61988.89      9955934 
  273000    302.64449   -3.5791139   -3.9054046    3.9054046       176400           42           42          100    1842628.3    1833547.8    9080.4971    1857937.5    62002.152    9956094.1 
  274000    299.11141     463.0163   -4.0669802    4.0669802       176400           42           42          100    1842694.8    1833720.3    8974.4909    1858078.8    61913.351      9956961 
  275000    297.90997     153.9603   -3.9430646    3.9430646       176400           42           42          100    1842681.7    1833743.3    8938.4431    1857962.8    61959.589      9956361 
  276000    302.78604   -334.84588   -3.9154521    3.9154521       176400           42           42          100    1842776.6    1833691.8     9084.744    1858050.8    61857.689    9955665.7 
  277000     300.6984    -249.7654   -4.1121892    4.1121892       176400           42           42          100    1842585.1      1833563    9022.1067    1857958.9    61863.046    9955581.9 
  278000    304.19201   -545.36515   -4.1432765    4.1432765       176400           42           42          100    1842793.9      1833667    9126.9284    1857959.2    61963.931    9955266.6 
  279000    297.77495    502.18043   -3.9755516    3.9755516       176400           42           42          100    1842471.6    1833537.3    8934.3921    1858022.6    61822.406    9956805.6 
  280000    301.83522   -137.26482    -3.856384     3.856384       176400           42           42          100    1842545.5    1833489.3    9056.2158    1858010.1    61880.322    9955737.2 
  281000    299.27468    990.78668   -3.6798137    3.6798137       176400           42           42          100    1842456.7    1833477.3    8979.3896    1858208.5    61620.125    9957498.7 
  282000    301.07624   -568.10952   -3.7593092    3.7593092       176400           42           42          100    1842652.2    1833618.7    9033.4435    1857991.3    61903.894    9955159.3 
  283000    301.16922    859.33856   -3.8302512    3.8302512       176400           42           42          100    1842704.5    1833668.3    9036.2333    1858094.7    61867.132    9957618.5 
  284000    299.17161    157.39832   -3.7954451    3.7954451       176400           42           42          100    1842368.8    1833392.5    8976.2971    1858039.6    61837.541    9956091.3 
  285000     300.1356   -72.847291   -3.7895133    3.7895133       176400           42           42          100    1842535.2      1833530    9005.2206    1858034.6    61762.261    9955808.6 
  286000    295.70715   -312.07734   -3.9128167    3.9128167       176400           42           42          100    1842344.8    1833472.5    8872.3501    1857984.2      61810.9    9955227.8 
  287000    300.52621    381.81705   -4.0035526    4.0035526       176400           42           42          100    1842665.8    1833648.9    9016.9404    1858090.6    61803.675      9956727 
  288000    297.33492    64.952155   -4.0213423    4.0213423       176400           42           42          100    1842747.3    1833826.1    8921.1895    1858081.6    61913.483    9956305.6 
  289000    302.72116    -38.88687   -4.1443924    4.1443924       176400           42           42          100    1842678.4    1833595.6    9082.7974    1857944.4    61928.047    9956087.7 
  290000    299.19829   -95.556528   -3.8977528    3.8977528       176400           42           42          100    1842521.2    1833544.1    8977.0979    1857986.9    61899.491      9955816 
  291000    300.04121    223.66869   -4.1953133    4.1953133       176400           42           42          100      1842587    1833584.6    9002.3886    1857852.6     62057.65    9956454.3 
  292000    298.19098    375.44831   -4.1763639    4.1763639       176400           42           42          100    1842562.3    1833615.4    8946.8746    1858045.5    61927.196    9956639.2 
  293000    295.83921    280.04687   -4.1765006    4.1765006       176400           42           42          100    1842368.9    1833492.6    8876.3124    1857897.2    61988.214    9956206.2 
  294000    303.83147     56.86478   -3.9626959    3.9626959       176400           42           42          100    1842618.7    1833502.6    9116.1108    1857968.6    62002.617    9956229.7 
  295000    301.39405   -116.22297   -3.9406642    3.9406642       176400           42           42          100    1842671.5    1833628.5    9042.9789    1858064.5    61869.425    9955948.3 
  296000    299.33097   -512.31924   -4.2197768    4.2197768       176400           42           42          100    1842528.5    1833547.4    8981.0787    1857986.8    61921.855    9955155.5 
  297000    297.23352    296.88257   -4.0923888    4.0923888       176400           42           42          100    1842415.4    1833497.3     8918.147    1857980.4    61954.706    9956384.2 
  298000    297.87872   -715.62098    -4.078242     4.078242       176400           42           42          100    1842596.2    1833658.7    8937.5055    1858105.5    61833.327    9954818.7 
  299000    303.04088    326.62462   -4.2097303    4.2097303       176400           42           42          100    1842822.1    1833729.8    9092.3903    1858022.5    61966.055    9956803.9 
  300000    300.43778    385.64915    -3.931543     3.931543       176400           42           42          100    1842519.6    1833505.3    9014.2873    1858066.4    61743.561    9956577.1 
  301000    302.88217   -373.28781   -4.2193217    4.2193217       176400           42           42          100    1842609.2    1833521.6    9087.6283    1857970.8      61942.5    9955438.1 
  302000     303.2178   -384.26979   -4.1085553    4.1085553       176400           42           42          100    1842796.6    1833698.9    9097.6986    1858093.9    61834.342    9955597.7 
  303000    299.40869   -208.57901   -4.2907069    4.2907069       176400           42           42          100    1842597.7    1833614.3    8983.4107    1858045.8    61860.634    9955699.7 
  304000    294.97513   -584.88492   -4.2458055    4.2458055       176400           42           42          100    1842586.6    1833736.2    8850.3868    1858026.4    61915.297    9955109.6 
  305000     295.1641   -11.349773   -4.1835652    4.1835652       176400           42           42          100    1842532.9    1833676.9    8856.0566    1857986.7    61948.343      9955898 
  306000    297.46285   -526.49288   -3.9157466    3.9157466       176400           42           42          100    1842535.7    1833610.6    8925.0278    1857969.5    61883.843    9955085.5 
  307000    297.88715    285.40266   -4.0962807    4.0962807       176400           42           42          100    1842544.2    1833606.5    8937.7586    1857926.9    61984.982    9956439.1 
  308000      305.586   -128.56414   -3.9758129    3.9758129       176400           42           42          100    1842782.1    1833613.4    9168.7535    1858039.8    61880.722    9956051.3 
  309000    301.96579    445.37509   -3.9978145    3.9978145       176400           42           42          100    1842836.4    1833776.3    9060.1334    1858128.6    61855.929    9956918.2 
  310000    300.51728   -412.56637   -3.9686904    3.9686904       176400           42           42          100    1842530.5    1833513.8    9016.6724    1857874.6    62007.941    9955244.7 
  311000    299.71804  -0.50065679   -4.0249326    4.0249326       176400           42           42          100      1842630    1833637.3    8992.6922    1858025.6    61874.625    9956204.9 
  312000     300.9789    387.63951   -4.0621028    4.0621028       176400           42           42          100    1842616.9    1833586.3    9030.5228      1858025    61817.731    9956791.6 
  313000    300.89414    567.54104   -4.1491325    4.1491325       176400           42           42          100    1842622.4    1833594.4    9027.9798    1857990.1    61880.977    9957005.6 
  314000    300.35959   -531.85962   -3.9853539    3.9853539       176400           42           42          100    1842552.2    1833540.2    9011.9413    1857943.6     61929.61    9955116.9 
  315000    299.78337   -174.89559   -4.0873793    4.0873793       176400           42           42          100    1842703.4    1833708.8    8994.6524    1858086.8    61817.073    9955839.3 
  316000    301.92221   -573.09042   -4.0005863    4.0005863       176400           42           42          100    1842658.6    1833599.7    9058.8258    1857975.3    61860.315    9955167.2 
  317000    298.99497   -136.06396   -4.0543081    4.0543081       176400           42           42          100    1842565.6    1833594.6    8970.9973    1858016.9    61841.805    9955857.7 
  318000    301.97143    433.25745   -4.2146402    4.2146402       176400           42           42          100    1842708.2    1833647.9    9060.3025    1858137.9    61713.998    9956913.8 
  319000     298.2912    300.83973   -4.0291093    4.0291093       176400           42           42          100      1842473    1833523.1    8949.8816    1858004.1     61869.84      9956453 
  320000    299.56347   -22.645668   -4.0825424    4.0825424       176400           42           42          100    1842566.8    1833578.8    8988.0547    1858043.1     61794.63    9955972.4 
  321000    300.23141    536.72919   -3.9713711    3.9713711       176400           42           42          100    1842680.5    1833672.4    9008.0953    1858032.9    61888.701    9957014.4 
  322000    299.04399    695.13311   -4.0590144    4.0590144       176400           42           42          100    1842700.4      1833728    8972.4682    1858015.8    61918.308    9957388.5 
  323000    301.82377    101.96695   -4.1348183    4.1348183       176400           42           42          100    1842694.3    1833638.4    9055.8723    1858006.8    61861.993    9956299.7 
  324000    299.60382   -757.78598   -4.1317322    4.1317322       176400           42           42          100    1842708.9    1833719.6    8989.2652    1858055.4    61901.488    9954881.4 
  325000    303.46525   -131.50476   -4.1491394    4.1491394       176400           42           42          100    1842715.2      1833610     9105.123    1858028.4    61971.025    9955974.7 
  326000    302.58557   -864.67592   -4.1428645    4.1428645       176400           42           42          100    1842794.5    1833715.8    9078.7292    1858067.6    61843.524    9954770.7 
  327000    302.40134    144.52452   -4.1539817    4.1539817       176400           42           42          100    1842607.7    1833534.5    9073.2015      1858078    61757.045    9956325.1 
  328000    298.30564   -575.29066   -4.1068889    4.1068889       176400           42           42          100    1842509.9    1833559.6     8950.315    1857971.5    61901.925    9955023.3 
  329000    298.94815   -387.80737    -3.958889     3.958889       176400           42           42          100    1842560.5    1833590.9    8969.5925    1858048.4    61838.985    9955270.4 
  330000    299.35844    168.05159   -3.9954333    3.9954333       176400           42           42          100    1842632.2    1833650.3     8981.903    1858038.4    61947.789      9956358 
  331000     302.3711    525.02141   -4.0266685    4.0266685       176400           42           42          100    1842724.8    1833652.5    9072.2941    1858135.6    61834.815    9957034.2 
  332000    296.64072   -39.547458   -4.0066818    4.0066818       176400           42           42          100    1842498.9    1833598.6    8900.3608    1858038.9    61855.711    9955922.2 
  333000    299.98472   -74.703628   -4.2556683    4.2556683       176400           42           42          100    1842692.9    1833692.2    9000.6935    1858003.4    62013.505      9956008 
  334000    299.43057    85.113119   -4.1077396    4.1077396       176400           42           42          100    1842711.1    1833727.1    8984.0671    1857895.8    62064.593    9956317.5 
  335000    299.88752    0.3436489   -4.1940586    4.1940586       176400           42           42          100      1842646    1833648.2    8997.7772    1857948.9    61973.993    9956151.9 
  336000    301.25849   -442.10958   -4.2704453    4.2704453       176400           42           42          100    1842517.9      1833479    9038.9116    1858048.1    61809.093    9955253.2 
  337000    300.74207   -358.21288   -4.0722552    4.0722552       176400           42           42          100    1842656.4      1833633     9023.417    1857935.9    61969.689    9955456.3 
  338000    297.48567   -198.93432   -4.0256509    4.0256509       176400           42           42          100    1842579.9    1833654.2    8925.7126    1858107.5    61803.914    9955647.6 
  339000    301.11276    782.84614    -4.226584     4.226584       176400           42           42          100    1842597.1    1833562.6    9034.5393    1858090.5    61841.132    9957355.5 
  340000    301.57003    218.26366   -4.3247727    4.3247727       176400           42           42          100    1842726.1    1833677.8    9048.2589    1858091.4    61921.601    9956548.4 
  341000    300.72379   -809.75866   -4.3152869    4.3152869       176400           42           42          100    1842516.3    1833493.5    9022.8687    1857993.4     61864.24    9954610.5 
  342000    297.73585    505.74538   -4.2543829    4.2543829       176400           42           42          100    1842574.2      1833641    8933.2189    1858145.2    61752.002    9956889.5 
  343000     295.1178    -362.2185   -4.3401116    4.3401116       176400           42           42          100    1842490.4    1833635.8    8854.6674      1857978    61923.605      9955327 
  344000    299.53896    411.27786   -4.1801216    4.1801216       176400           42           42          100    1842537.1    1833549.8     8987.319    1858070.1     61826.27    9956641.4 
  345000     299.0072    1432.6666   -4.2455095    4.2455095       176400           42           42          100    1842671.2    1833699.8    8971.3644    1858186.8        61764    9958561.4 
  346000    300.31108    21.672922   -4.1752457    4.1752457       176400           42           42          100    1842681.1    1833670.6    9010.4856    1858004.9    61941.407    9956160.7 
  347000    302.64349    5.5360895   -4.2236069    4.2236069       176400           42           42          100    1842687.8    1833607.3    9080.4671    1858018.8    61868.797    9956151.1 
  348000    300.67904    661.21407   -4.2574052    4.2574052       176400           42           42          100    1842510.7    1833489.2    9021.5258    1858082.7    61769.411    9957073.2 
  349000    300.93037   -111.43079   -4.2534191    4.2534191       176400           42           42          100    1842697.9    1833668.8    9029.0667    1857992.4    61888.841    9955960.1 
  350000    302.57689    586.44512   -4.2686598    4.2686598       176400           42           42          100    1842685.6    1833607.1    9078.4688    1858013.4    61872.658      9957211 
  351000    297.53576   -272.81242   -4.1937118    4.1937118       176400           42           42          100    1842539.5    1833612.3    8927.2155    1858089.4    61786.948    9955494.4 
  352000     302.3945   -107.02908   -4.2584794    4.2584794       176400           42           42          100    1842697.1    1833624.1    9072.9963    1858096.5    61816.784    9955993.3 
  353000     296.5107    79.979241   -4.2897643    4.2897643       176400           42           42          100    1842378.3    1833481.8    8896.4597    1858005.1    61765.949      9955917 
  354000    298.65947    94.206958   -4.1522291    4.1522291       176400           42           42          100    1842631.7    1833670.8    8960.9309    1858040.6    61805.741    9956329.9 
  355000    300.48576    79.985793   -4.2269397    4.2269397       176400           42           42          100    1842506.8      1833491    9015.7269    1858041.5    61743.535    9956137.5 
  356000     300.6416   -132.97255   -4.3000487    4.3000487       176400           42           42          100    1842662.7    1833642.3    9020.4025    1857919.1    61900.741    9955814.6 
  357000    302.02294   -68.915956   -4.3409643    4.3409643       176400           42           42          100    1842564.6    1833502.8    9061.8481    1857946.4    61924.378    9955941.4 
  358000    300.04093    367.83311   -4.4448693    4.4448693       176400           42           42          100    1842621.9    1833619.5    9002.3801    1858031.6    61841.621    9956714.6 
  359000    297.58466   -318.48178   -4.1944758    4.1944758       176400           42           42          100    1842467.4    1833538.7    8928.6826    1857886.2    61948.324    9955355.1 
  360000    300.82229   -63.395684   -4.2696277    4.2696277       176400           42           42          100    1842512.1    1833486.3    9025.8239    1857954.6    61787.528    9955822.8 
  361000    297.13332    113.35247   -4.1531793    4.1531793       176400           42           42          100    1842461.8    1833546.7    8915.1406    1857967.7    61905.397    9956082.2 
  362000    298.13299    235.07382   -4.0102743    4.0102743       176400           42           42          100    1842422.9    1833477.8    8945.1346    1857973.7     61899.43    9956230.5 
  363000     299.8436    184.18916   -4.1084446    4.1084446       176400           42           42          100    1842637.9    1833641.4    8996.4596    1858052.6    61847.989    9956413.5 
  364000    298.74938    296.25982   -4.0071047    4.0071047       176400           42           42          100    1842627.4    1833663.8    8963.6288    1858001.8    61945.337      9956632 
  365000    301.93856    357.88582   -4.1552659    4.1552659       176400           42           42          100    1842737.9    1833678.6    9059.3163    1858058.3    61936.746    9956789.8 
  366000    299.20135    -79.61328   -4.3650628    4.3650628       176400           42           42          100      1842637    1833659.8    8977.1896    1858058.6    61863.791    9955928.2 
  367000    297.83461    583.63871   -4.0532294    4.0532294       176400           42           42          100      1842572    1833635.8    8936.1822    1858032.3    61970.235    9956971.5 
  368000    302.29252   -300.02969   -4.0652609    4.0652609       176400           42           42          100    1842786.8    1833716.9    9069.9366    1857933.7    62032.015    9955680.4 
  369000    301.28571    69.366247   -4.0559832    4.0559832       176400           42           42          100    1842632.5    1833592.7    9039.7285    1858040.9    61883.918    9956148.7 
  370000    302.51989   -258.18595   -4.0906485    4.0906485       176400           42           42          100    1842708.1    1833631.4    9076.7586    1857834.6    62035.097    9955714.7 
  371000    302.77688    157.45938   -3.9017445    3.9017445       176400           42           42          100    1842763.3    1833678.8    9084.4693    1857921.4    62043.652    9956422.8 
  372000    300.84881    525.11856   -4.1566582    4.1566582       176400           42           42          100    1842842.7    1833816.1    9026.6198    1858002.9    62094.128    9957140.5 
  373000    297.55077    665.03743   -3.9863143    3.9863143       176400           42           42          100    1842489.3    1833561.7    8927.6658    1858013.1    61895.804    9956998.4 
  374000    300.00574    74.378106   -4.1111218    4.1111218       176400           42           42          100    1842586.6    1833585.3    9001.3242    1858085.8    61823.941    9956159.9 
  375000      296.711    128.68582   -4.1943686    4.1943686       176400           42           42          100    1842548.5      1833646    8902.4693    1857975.5    61954.391    9956190.5 
  376000    305.07888   -278.24359   -4.2006706    4.2006706       176400           42           42          100    1842795.4    1833641.9     9153.538    1858047.4    61865.171    9955776.6 
  377000    298.36203     182.8638   -4.2354833    4.2354833       176400           42           42          100    1842631.9    1833679.9    8952.0068    1858012.5    61947.436    9956379.9 
  378000    298.44456    303.97848   -4.2074395    4.2074395       176400           42           42          100    1842544.9    1833590.5    8954.4828    1857989.3    61990.399    9956576.3 
  379000    297.17759   -549.43591    -4.248729     4.248729       176400           42           42          100    1842455.7    1833539.2     8916.469    1857982.9    61918.444    9955038.4 
  380000    298.31413   -506.92299   -4.2175986    4.2175986       176400           42           42          100    1842623.9    1833673.3    8950.5694    1858071.4    61849.337    9955282.8 
  381000    298.50902    196.99817   -4.1059487    4.1059487       176400           42           42          100    1842609.1    1833652.7     8956.417    1858002.5    61975.826    9956408.4 
  382000    302.62517   -186.11691   -4.2563714    4.2563714       176400           42           42          100    1842642.5    1833562.6    9079.9174    1857990.7    61879.968    9955845.7 
  383000    298.08052    453.83526   -4.3968384    4.3968384       176400           42           42          100    1842635.2    1833691.6    8943.5604    1858069.7    61851.789    9956891.8 
  384000    301.28299    224.99978   -4.3968337    4.3968337       176400           42           42          100      1842608    1833568.4    9039.6467    1858071.1    61783.582    9956402.3 
  385000    302.42472   -466.70549   -4.3450097    4.3450097       176400           42           42          100    1842754.1    1833680.2     9073.903    1857997.3     61929.15    9955428.1 
  386000    299.74976   -1401.2012   -4.2535454    4.2535454       176400           42           42          100    1842677.7    1833684.1     8993.644      1857903    61962.038    9953804.1 
  387000      299.083    400.01742   -4.3156081    4.3156081       176400           42           42          100    1842682.6      1833709    8973.6386    1858010.5    61876.505    9956885.2 
  388000    300.11581    49.241627   -4.2788353    4.2788353       176400           42           42          100    1842528.8    1833524.2    9004.6269    1857920.2    61968.005    9955955.5 
  389000    301.58057    993.43321   -4.3313292    4.3313292       176400           42           42          100      1842641    1833592.5    9048.5754    1858030.5    61882.126    9957802.2 
  390000    299.49524    181.43401   -4.2470094    4.2470094       176400           42           42          100    1842563.8    1833577.8    8986.0075    1858036.9    61785.781    9956335.9 
  391000    300.21132    43.062493   -4.2610223    4.2610223       176400           42           42          100    1842610.6    1833603.1    9007.4926      1857972      61906.7    9956132.6 
  392000     298.3682    321.13449   -4.0410761    4.0410761       176400           42           42          100    1842552.1    1833599.9    8952.1917    1858109.6    61845.099    9956488.4 
  393000    301.92112    244.59206    -4.309727     4.309727       176400           42           42          100    1842669.4    1833610.7     9058.793    1858045.1    61845.193    9956605.8 
  394000    302.67566    727.76865   -4.5414915    4.5414915       176400           42           42          100    1842663.5      1833582    9081.4323      1858153    61680.794      9957322 
  395000    297.63925   -469.58938   -4.2367363    4.2367363       176400           42           42          100    1842676.3      1833746    8930.3206    1858120.8    61785.168      9955191 
  396000    300.58094    853.98416   -4.2995498    4.2995498       176400           42           42          100    1842679.3    1833660.7    9018.5824      1858052    61866.732    9957606.7 
[...]
 4252000    300.57369    746.85287   -4.7368825    4.7368825       176400           42           42          100    1842503.5    1833485.1    9018.3649    1858025.7    61828.336    9957110.3 
 4253000    297.05281    570.78326   -4.9377551    4.9377551       176400           42           42          100      1842419    1833506.3     8912.725      1858042    61814.457      9956837 
 4254000    301.15893    835.40659    -4.927501     4.927501       176400           42           42          100    1842524.7    1833488.7    9035.9243    1858067.9    61719.395    9957296.2 
 4255000    300.64463    911.46535    -4.957539     4.957539       176400           42           42          100    1842658.2    1833637.8    9020.4934    1858045.7     61860.71    9957659.3 
 4256000    299.14067   -274.96205   -5.0412326    5.0412326       176400           42           42          100    1842631.4      1833656    8975.3688    1858045.9    61815.065    9955583.3 
 4257000    302.08951    503.81218   -4.8543572    4.8543572       176400           42           42          100    1842661.9    1833598.1    9063.8454    1857978.2    61856.477    9956925.2 
 4258000    299.33653    427.89843   -5.1220791    5.1220791       176400           42           42          100    1842489.5    1833508.3    8981.2456    1857990.6     61836.02    9956636.5 
 4259000    302.17972    887.51071   -4.8434284    4.8434284       176400           42           42          100    1842647.7    1833581.1     9066.552    1858033.2    61790.951    9957612.1 
 4260000    302.12193    509.40188   -4.9191175    4.9191175       176400           42           42          100    1842652.2    1833587.4    9064.8182    1858097.5    61725.952    9956985.8 
 4261000     302.0047    206.36862   -5.0484673    5.0484673       176400           42           42          100      1842625    1833563.7    9061.3007    1858100.7    61764.804    9956416.2 
 4262000    303.44623    199.08485   -5.0610026    5.0610026       176400           42           42          100    1842891.5      1833787    9104.5523    1858077.1     61833.86    9956700.6 
 4263000     299.4575   -89.163068   -4.9150943    4.9150943       176400           42           42          100      1842593    1833608.2     8984.875    1858104.7    61797.305    9955965.2 
 4264000    301.53255   -381.93969   -4.8897878    4.8897878       176400           42           42          100      1842715    1833667.9    9047.1345    1858049.7    61878.429    9955483.3 
 4265000    302.83862    352.30188   -4.9311831    4.9311831       176400           42           42          100    1842795.9    1833709.6    9086.3216    1858005.7    61961.424    9956877.1 
 4266000    302.12201    404.80769   -5.0223279    5.0223279       176400           42           42          100    1842729.8      1833665    9064.8206    1857950.6    61918.241    9956827.3 
 4267000    297.46668   -676.86003   -5.0634919    5.0634919       176400           42           42          100    1842574.8    1833649.6    8925.1428    1857862.6    62098.292    9954847.7 
 4268000    298.79264    434.89738    -5.041841     5.041841       176400           42           42          100    1842700.7    1833735.8    8964.9267    1858028.5    61990.344    9956915.8 
 4269000    298.26427    265.53964   -5.0654298    5.0654298       176400           42           42          100    1842654.5    1833705.4    8949.0736    1857987.7     61902.91    9956506.7 
 4270000    301.41969    45.074426   -4.9878031    4.9878031       176400           42           42          100    1842708.9    1833665.2    9043.7482    1858039.7    61920.391    9956212.3 
 4271000     301.4755    568.39925   -4.9567277    4.9567277       176400           42           42          100    1842701.8    1833656.3    9045.4229    1858112.6    61834.769    9957080.7 
 4272000    299.08885      605.077   -4.9634763    4.9634763       176400           42           42          100    1842494.5    1833520.7     8973.814    1858064.1    61781.804    9956923.6 
 4273000    297.66935    132.30959   -4.9405073    4.9405073       176400           42           42          100    1842483.8    1833552.6    8931.2237    1858100.8    61751.711    9956080.7 
 4274000    301.47362   -16.252598   -5.0413231    5.0413231       176400           42           42          100    1842627.5    1833582.2    9045.3664    1858172.9      61687.2    9956054.3 
 4275000    296.56478    -505.7766   -5.1057834    5.1057834       176400           42           42          100    1842611.5    1833713.4    8898.0823    1858019.8    61962.819    9955175.6 
 4276000    295.53194   -359.10456   -5.0307734    5.0307734       176400           42           42          100    1842348.5    1833481.4    8867.0932    1857959.5    61855.571    9955186.2 
 4277000    303.05422   -283.81196   -5.0134484    5.0134484       176400           42           42          100    1842646.8    1833554.1    9092.7905    1857946.8    61907.735    9955533.9 
 4278000    302.31974    136.50217   -5.1222885    5.1222885       176400           42           42          100    1842753.3    1833682.6    9070.7532    1858027.3    61864.127    9956424.5 
 4279000    300.99084    -201.4593   -5.1691482    5.1691482       176400           42           42          100    1842782.8    1833751.9    9030.8812    1857979.7     61988.76    9955958.9 
 4280000    299.26361   -403.13798   -5.1569728    5.1569728       176400           42           42          100    1842630.7    1833651.6    8979.0575    1858007.8    61881.081    9955307.5 
 4281000    299.64364   -418.22674   -4.9536018    4.9536018       176400           42           42          100    1842586.6    1833596.2    8990.4599    1858117.4    61757.841    9955261.4 
 4282000    300.80483    243.30082   -5.0447577    5.0447577       176400           42           42          100    1842654.5    1833629.2    9025.3001    1858096.4    61804.777    9956535.4 
 4283000    294.24118   -89.238235   -4.9598565    4.9598565       176400           42           42          100    1842587.4      1833759    8828.3654    1858055.5     61910.08    9955900.3 
 4284000    301.58059     433.6623   -5.1362008    5.1362008       176400           42           42          100    1842740.3    1833691.8    9048.5758    1857951.2    61981.676    9957008.3 
 4285000    298.40693   -528.34387   -5.0056943    5.0056943       176400           42           42          100    1842604.5    1833651.1     8953.354    1857971.5    61918.571    9955198.1 
 4286000    298.80686    1034.0325   -5.0012856    5.0012856       176400           42           42          100      1842731    1833765.7    8965.3533    1858136.8     61802.55    9957962.6 
 4287000    302.14632    528.66232    -5.032949     5.032949       176400           42           42          100    1842771.4    1833705.9    9065.5498    1858061.2    61841.785    9957245.3 
 4288000    300.78423   -484.94201   -4.9655253    4.9655253       176400           42           42          100    1842812.4    1833787.7     9024.682    1857960.1    62010.136    9955440.4 
 4289000    300.82163   -65.069506   -4.9546883    4.9546883       176400           42           42          100    1842633.9    1833608.1    9025.8042      1858009    61883.702    9956058.1 
 4290000    300.56108   -333.67842   -4.8733598    4.8733598       176400           42           42          100      1842555      1833537    9017.9866    1858059.5    61797.836    9955439.6 
 4291000    296.65632    528.36753   -4.8195753    4.8195753       176400           42           42          100      1842564    1833663.2    8900.8288    1858127.6    61799.435    9956902.2 
 4292000    302.93009      -190.49   -4.9344664    4.9344664       176400           42           42          100    1842821.1      1833732     9089.066    1857944.5    61948.616    9955903.5 
 4293000    295.16557   -185.59868   -4.9357699    4.9357699       176400           42           42          100    1842430.8    1833574.7    8856.1006    1858149.5    61759.496    9955580.4 
 4294000    297.81908    417.84154   -4.9524588    4.9524588       176400           42           42          100      1842506    1833570.2    8935.7161    1858009.3    61857.715    9956696.4 
 4295000    300.60271    642.42913   -5.0381359    5.0381359       176400           42           42          100    1842541.1    1833521.8    9019.2358    1858244.5    61601.837    9957099.1 
 4296000    298.95713   -178.09249   -5.0290043    5.0290043       176400           42           42          100    1842679.3    1833709.4    8969.8621    1858024.9    61914.001    9955870.5 
 4297000    297.08986     145.2381   -5.0588634    5.0588634       176400           42           42          100    1842656.8      1833743    8913.8368    1858023.3    61904.222    9956314.5 
 4298000    298.42799   -36.978718    -4.896633     4.896633       176400           42           42          100    1842496.1    1833542.1    8953.9858    1857986.2    61843.647    9955776.3 
 4299000    302.39372    511.94035   -4.7435784    4.7435784       176400           42           42          100    1842560.5    1833487.6    9072.9728      1858106    61710.271    9956822.8 
 4300000    296.74241    1320.8389    -4.875301     4.875301       176400           42           42          100    1842659.1    1833755.7     8903.412    1858069.6    61854.659    9958335.9 
 4301000     298.0415   -158.83162   -4.8232679    4.8232679       176400           42           42          100    1842653.6    1833711.2    8942.3897    1857916.2    62073.904    9955804.2 
 4302000    299.07416    656.48899   -4.8843134    4.8843134       176400           42           42          100    1842719.7    1833746.3    8973.3734    1858049.3    61919.462    9957253.1 
 4303000    298.38241   -319.45895   -4.9767329    4.9767329       176400           42           42          100    1842700.6      1833748    8952.6183    1858000.7    61910.832    9955658.4 
 4304000    303.30347    266.88517   -4.9719071    4.9719071       176400           42           42          100      1842852    1833751.8    9100.2688    1858038.1     61916.53    9956729.1 
 4305000    298.03074   -797.29615   -4.9120128    4.9120128       176400           42           42          100    1842636.7    1833694.6    8942.0668      1858037    61758.271    9954805.3 
 4306000    298.03024     87.50107   -4.9773978    4.9773978       176400           42           42          100    1842529.4    1833587.3    8942.0518    1858062.8    61783.396    9956178.7 
 4307000    296.47981    -17.88266   -4.9261412    4.9261412       176400           42           42          100    1842600.6    1833705.1    8895.5329    1858015.7    61952.919    9956100.1 
 4308000    302.54316   -852.71291   -5.1107745    5.1107745       176400           42           42          100      1842700    1833622.6    9077.4567      1857979    61909.761    9954728.7 
 4309000    301.39846   -401.05607   -5.1282537    5.1282537       176400           42           42          100      1842686    1833642.9    9043.1114    1858077.3    61863.341    9955513.4 
 4310000    304.40564     16.49899   -5.0393894    5.0393894       176400           42           42          100    1842747.1    1833613.8    9133.3382    1858038.8    61874.394    9956250.7 
 4311000    303.58281   -276.33059   -5.1688688    5.1688688       176400           42           42          100    1842816.7    1833708.1    9108.6501    1858125.8    61793.678    9955862.6 
 4312000    300.93535    385.67816   -5.0917511    5.0917511       176400           42           42          100    1842742.1    1833712.9    9029.2161    1857977.2    61892.334    9956874.3 
 4313000    304.01263    361.00537   -4.9091999    4.9091999       176400           42           42          100    1842766.1    1833644.6    9121.5463    1858058.6    61794.673    9956854.2 
 4314000    300.90048   -230.52607   -5.0305797    5.0305797       176400           42           42          100    1842671.1    1833642.9    9028.1698    1857965.8    61881.165    9955765.7 
 4315000     298.2534    467.02475   -5.0567002    5.0567002       176400           42           42          100    1842386.6    1833437.9    8948.7474    1857931.7    61810.844    9956722.2 
 4316000    298.77816   -644.53882   -5.1921114    5.1921114       176400           42           42          100    1842680.4    1833715.9    8964.4922      1858052    61827.945    9955078.9 
 4317000    299.68356   -297.76278   -5.1758508    5.1758508       176400           42           42          100    1842735.6    1833743.9    8991.6576    1858082.3    61853.609    9955723.1 
 4318000      302.367     -323.451   -5.2906444    5.2906444       176400           42           42          100    1842523.3    1833451.2    9072.1712    1858016.9    61795.774    9955349.8 
 4319000    297.95331   -130.11393   -5.1626747    5.1626747       176400           42           42          100    1842562.8      1833623    8939.7434    1858048.4    61869.495    9955722.6 
 4320000    298.47201   -217.21547   -4.9989202    4.9989202       176400           42           42          100    1842594.3      1833639    8955.3065    1858053.4    61867.695    9955707.9 
 4321000      298.505   -454.94427   -4.8214772    4.8214772       176400           42           42          100    1842483.4    1833527.1    8956.2963    1857955.7    61886.518    9955211.3 
 4322000    302.88963   -178.29482   -4.8167638    4.8167638       176400           42           42          100    1842655.4    1833567.5    9087.8521    1857945.5    61854.126    9955775.8 
 4323000    299.60308    -285.3003   -5.1039618    5.1039618       176400           42           42          100    1842830.4    1833841.1    8989.2429    1857986.6    61935.774    9955823.4 
 4324000    299.35435    242.19336   -5.1248566    5.1248566       176400           42           42          100    1842549.5    1833567.7    8981.7802    1858055.4    61803.475    9956420.9 
 4325000    299.50923   -17.926676   -4.9625031    4.9625031       176400           42           42          100    1842640.8    1833654.4    8986.4271    1857927.2    61965.979    9956029.4 
 4326000    299.23586    9.6367527   -4.8916467    4.8916467       176400           42           42          100    1842642.3    1833664.1    8978.2248    1858068.4    61810.168    9956141.6 
 4327000    301.74651   -179.20137   -4.9667719    4.9667719       176400           42           42          100    1842669.1    1833615.5    9053.5541    1858008.3    61881.148    9955833.4 
 4328000    296.50092   -272.84465   -4.9512158    4.9512158       176400           42           42          100    1842532.6    1833636.4    8896.1663    1857991.1    61962.518    9955523.9 
 4329000    301.20581    73.389101   -5.0394797    5.0394797       176400           42           42          100    1842704.2    1833666.9    9037.3309    1858090.5    61802.807    9956286.6 
 4330000     298.2093    52.210803   -4.8856775    4.8856775       176400           42           42          100    1842476.1    1833528.7    8947.4243    1858036.7    61775.597    9956004.6 
 4331000    300.22467   -697.61161   -5.0460574    5.0460574       176400           42           42          100    1842641.5    1833633.6    9007.8931      1858063    61841.682    9954916.3 
 4332000    302.91238    150.99752   -5.0295509    5.0295509       176400           42           42          100    1842792.1    1833703.6    9088.5345    1858081.1     61766.95    9956488.1 
 4333000    304.64892   -138.12726   -5.0059418    5.0059418       176400           42           42          100    1842766.9    1833626.2    9140.6376    1858083.1    61804.784    9955957.1 
 4334000    300.44016    287.40119   -4.9401313    4.9401313       176400           42           42          100    1842723.9    1833709.5    9014.3586    1857979.9    61892.988    9956610.3 
 4335000    301.94806    1088.0568   -4.8827462    4.8827462       176400           42           42          100    1842750.6      1833691    9059.6015    1858112.8    61871.125    9958094.5 
 4336000    301.81807   -185.50769   -4.7613521    4.7613521       176400           42           42          100    1842602.1    1833546.4    9055.7012    1858061.3    61805.386      9955786 
 4337000    299.65984   -223.66054   -4.9199172    4.9199172       176400           42           42          100    1842522.2    1833531.3    8990.9461    1858008.2    61843.955    9955581.5 
 4338000     304.3871   -164.67141   -4.9237544    4.9237544       176400           42           42          100    1842747.3    1833614.5    9132.7819    1858099.1    61776.545      9955965 
 4339000    303.39689   -407.78403   -4.9459628    4.9459628       176400           42           42          100    1842669.4    1833566.3    9103.0717    1858007.6    61836.133    9955392.9 
 4340000    297.75273   -749.66582   -5.0073319    5.0073319       176400           42           42          100    1842440.1    1833506.4    8933.7254    1857965.4    61824.369    9954555.5 
 4341000    303.12216    592.84968   -4.9739629    4.9739629       176400           42           42          100    1842657.5    1833562.7    9094.8288    1858076.4    61826.298    9957118.6 
 4342000    303.04155    121.02701   -5.0815645    5.0815645       176400           42           42          100    1842707.9    1833615.5    9092.4102    1858026.9     61890.81    9956288.4 
 4343000    296.64288    158.96318    -4.979562     4.979562       176400           42           42          100    1842596.1    1833695.6    8900.4257    1857901.7     62018.72    9956268.3 
 4344000    302.30108    -478.1661   -5.0756208    5.0756208       176400           42           42          100    1842678.2      1833608    9070.1934    1858002.7    61890.169    9955311.7 
 4345000    298.33859    -76.03173   -5.0093143    5.0093143       176400           42           42          100    1842678.9    1833727.6    8951.3036    1858116.7    61833.652    9956006.7 
 4346000    297.30771   -258.37655   -4.9711099    4.9711099       176400           42           42          100    1842537.2    1833616.8    8920.3729    1858123.4    61763.641    9955629.1 
 4347000    298.84136    166.29619   -5.2569055    5.2569055       176400           42           42          100    1842499.3    1833532.9    8966.3885    1858065.7    61750.377    9956181.6 
 4348000    294.93761    572.00033   -5.1813179    5.1813179       176400           42           42          100    1842493.2      1833644    8849.2609    1858090.7    61879.938      9956924 
 4349000    304.29946    6.2855816   -5.1523616    5.1523616       176400           42           42          100    1842726.9    1833596.8    9130.1525    1858017.6    61915.415    9956201.4 
 4350000    306.37744    142.85139    -4.960726     4.960726       176400           42           42          100    1842766.9    1833574.4    9192.4999    1858087.1    61813.041    9956534.2 
 4351000    297.85843    589.23294   -5.0486466    5.0486466       176400           42           42          100    1842394.4    1833457.5    8936.8968    1857999.6    61826.239      9956877 
 4352000    301.88148    795.15634   -5.1373362    5.1373362       176400           42           42          100    1842764.1    1833706.5    9057.6036    1858105.8    61851.147    9957590.6 
 4353000     298.7048    311.45647   -5.2216505    5.2216505       176400           42           42          100    1842501.8    1833539.5    8962.2912      1858018    61754.207    9956496.1 
 4354000    298.72674    304.33165   -5.2108446    5.2108446       176400           42           42          100    1842551.8    1833588.8    8962.9495      1858089    61756.755    9956538.2 
 4355000    305.16664   -185.35645   -5.0769997    5.0769997       176400           42           42          100    1842770.7    1833614.5    9156.1711    1858064.7    61800.206    9955862.7 
